                         Program Version 5.0.4 -  RELEASE  -
|  1> !B3LYP D3BJ DKH DKH-def2-TZVP def2/J RIJCOSX DefGrid3 nofinalgridx TIGHTSCF slowconv keepdens somf(1X)
|  2> !KDIIS
|  3>
|  4> %pal
|  5> nprocs 8
|  6> end
|  7>
|  8> %maxcore 20000
|  9>
| 10> *xyz 0 3
| 11> C   1.16124064102952      0.16692169973347      2.47606567226722
| 12> C   -3.05031885501092      2.43647200658452      7.68243349301785
| 13> C   -3.34719901949087      3.23115608264950      8.77734356796339
| 14> C   -2.35131423874804      3.58196449642106      9.71386131607833
| 15> C   -1.06678626049330      3.09769718735916      9.52499640376996
| 16> C   0.61085393020716      1.74167095496578      8.37438062486786
| 17> C   -2.01171824117489     -0.83980917142409      4.19556335677511
| 18> C   -1.84912907758488     -2.16319236165676      4.95637000106355
| 19> C   2.38514110443458      0.34152921164529      7.67172248462954
| 20> C   2.20023349272823     -1.20978155264610      7.72111586076827
| 21> C   2.14931182109141      0.49731856257146      3.47529302373169
| 22> C   3.46201730629737      0.80230089164486      2.99438989130089
| 23> C   3.77082112961468      0.80404370594832      1.64427911251587
| 24> C   2.79471585366547      0.49027359291828      0.67484306605680
| 25> C   1.51664187231264      0.17024067301094      1.10416398024884
| 26> C   -0.17994031283486     -0.24135679546641      2.82077990745738
| 27> C   -0.72546642523696      2.28430234991249      8.41590853086804
| 28> C   -1.73071894113219      1.94327564170514      7.43948785085882
| 29> H   -3.82051004421697      2.16157749475885      6.95665164643391
| 30> H   -4.37050473684108      3.59170204053734      8.92130965642231
| 31> H   -2.59458729509624      4.20943278261550     10.57379195960460
| 32> H   -0.28193580406344      3.33462488887812     10.25035504592128
| 33> H   1.23077931029507      1.95107702830158      9.26499009870099
| 34> H   -2.63553562509495     -0.15296234231392      4.78597186673668
| 35> H   -2.50841985606493     -1.04041965300755      3.22832272948281
| 36> H   3.05528053446689      0.59527643490252      6.84005912493597
| 37> H   2.83675201017453      0.69930748382530      8.61336379065326
| 38> H   4.21987236474135      1.04725249859212      3.74284665468682
| 39> H   4.78688977220111      1.05551923856284      1.32417646864671
| 40> H   3.04697207175033      0.49360135697352     -0.38807696644483
| 41> H   0.74653633603354     -0.09310618042740      0.37188393954864
| 42> H   -0.78294334502497     -0.63696089631641      1.98290927235775
| 43> Ni  0.17822978618364      0.41076257293438      5.72351242702910
| 44> N   -0.71678236827426     -0.21026543608076      3.99358274259028
| 45> N   1.11526958313784      1.00904383100463      7.44012990412668
| 46> N   0.13303591900038     -1.56502647841763      6.38645695872922
| 47> O   1.91538252737228      0.52025042412329      4.74470204534879
| 48> O   -1.50719822554021      1.22372795852204      6.38994669307384
| 49> C   -1.26222141558224     -2.05159096780095      6.36219448345465
| 50> C   0.74559713441556     -1.67257003675796      7.72163057284988
| 51> H   -2.84155152789799     -2.63415191048497      5.04800473936495
| 52> H   -1.23154691830986     -2.84995753935360      4.34989965677009
| 53> H   -1.86037860337958     -1.34951239230608      6.96302869372112
| 54> H   -1.32169059478712     -3.04103217641581      6.85394861104112
| 55> H   0.60820946686770     -2.69275577253857      8.12579494546677
| 56> H   0.15274579580029     -1.03269537303999      8.39294075968912
| 57> H   2.71748151532921     -1.66964096460422      6.86344805339806
| 58> H   2.68950930288408     -1.60086255598984      8.62540347315577
| 59> H   0.68942714984593     -2.10771253455333      5.72138180826367
| 60> *
| 61>
| 62> %eprnmr
| 63> DTensor ssandso
| 64> DSOC cp
| 65> DSS UNO
| 66> gtensor 1
| 67> tol 3e-6
| 68> maxiter 200
| 69> ori CenterOfElCharge
| 70> printlevel 2
| 71> nuclei = all H {aiso, adip, aorb}
| 72> end
| 73>
| 74>                          ****END OF INPUT****

CARTESIAN COORDINATES (ANGSTROEM)
---------------------------------
  C      1.161241    0.166922    2.476066
  C     -3.050319    2.436472    7.682433
  C     -3.347199    3.231156    8.777344
  C     -2.351314    3.581964    9.713861
  C     -1.066786    3.097697    9.524996
  C      0.610854    1.741671    8.374381
  C     -2.011718   -0.839809    4.195563
  C     -1.849129   -2.163192    4.956370
  C      2.385141    0.341529    7.671722
  C      2.200233   -1.209782    7.721116
  C      2.149312    0.497319    3.475293
  C      3.462017    0.802301    2.994390
  C      3.770821    0.804044    1.644279
  C      2.794716    0.490274    0.674843
  C      1.516642    0.170241    1.104164
  C     -0.179940   -0.241357    2.820780
  C     -0.725466    2.284302    8.415909
  C     -1.730719    1.943276    7.439488
  H     -3.820510    2.161577    6.956652
  H     -4.370505    3.591702    8.921310
  H     -2.594587    4.209433   10.573792
  H     -0.281936    3.334625   10.250355
  H      1.230779    1.951077    9.264990
  H     -2.635536   -0.152962    4.785972
  H     -2.508420   -1.040420    3.228323
  H      3.055281    0.595276    6.840059
  H      2.836752    0.699307    8.613364
  H      4.219872    1.047252    3.742847
  H      4.786890    1.055519    1.324176
  H      3.046972    0.493601   -0.388077
  H      0.746536   -0.093106    0.371884
  H     -0.782943   -0.636961    1.982909
  Ni     0.178230    0.410763    5.723512
  N     -0.716782   -0.210265    3.993583
  N      1.115270    1.009044    7.440130
  N      0.133036   -1.565026    6.386457
  O      1.915383    0.520250    4.744702
  O     -1.507198    1.223728    6.389947
  C     -1.262221   -2.051591    6.362194
  C      0.745597   -1.672570    7.721631
  H     -2.841552   -2.634152    5.048005
  H     -1.231547   -2.849958    4.349900
  H     -1.860379   -1.349512    6.963029
  H     -1.321691   -3.041032    6.853949
  H      0.608209   -2.692756    8.125795
  H      0.152746   -1.032695    8.392941
  H      2.717482   -1.669641    6.863448
  H      2.689509   -1.600863    8.625403
  H      0.689427   -2.107713    5.721382

 Total Charge           Charge          ....    0
 Multiplicity           Mult            ....    3
 Number of Electrons    NEL             ....  208
 Basis Dimension        Dim             ....  993

ORBITAL ENERGIES
----------------
                 SPIN UP ORBITALS
  NO   OCC          E(Eh)            E(eV)
   0   1.0000    -303.038671     -8246.1015
   1   1.0000     -36.476927      -992.5876
   2   1.0000     -31.331296      -852.5679
   3   1.0000     -31.329385      -852.5159
   4   1.0000     -31.325358      -852.4063
   5   1.0000     -19.100040      -519.7385
   6   1.0000     -19.097739      -519.6759
   7   1.0000     -14.367642      -390.9634
   8   1.0000     -14.335819      -390.0975
   9   1.0000     -14.335649      -390.0928
  10   1.0000     -10.229243      -278.3518
  11   1.0000     -10.228943      -278.3437
  12   1.0000     -10.228032      -278.3189
  13   1.0000     -10.226443      -278.2757
  14   1.0000     -10.223754      -278.2025
  15   1.0000     -10.223638      -278.1993
  16   1.0000     -10.209324      -277.8098
  17   1.0000     -10.208428      -277.7854
  18   1.0000     -10.197041      -277.4756
  19   1.0000     -10.194647      -277.4105
  20   1.0000     -10.178320      -276.9662
  21   1.0000     -10.176766      -276.9239
  22   1.0000     -10.176006      -276.9032
  23   1.0000     -10.174247      -276.8553
  24   1.0000     -10.173589      -276.8374
  25   1.0000     -10.171864      -276.7905
  26   1.0000     -10.162213      -276.5279
  27   1.0000     -10.160358      -276.4774
  28   1.0000     -10.158947      -276.4390
  29   1.0000     -10.157025      -276.3867
  30   1.0000      -4.188740      -113.9814
  31   1.0000      -2.695560       -73.3499
  32   1.0000      -2.693306       -73.2886
  33   1.0000      -2.685180       -73.0675
  34   1.0000      -0.994616       -27.0649
  35   1.0000      -0.991697       -26.9854
  36   1.0000      -0.951550       -25.8930
  37   1.0000      -0.934920       -25.4405
  38   1.0000      -0.930203       -25.3121
  39   1.0000      -0.832073       -22.6419
  40   1.0000      -0.830331       -22.5945
  41   1.0000      -0.803337       -21.8599
  42   1.0000      -0.778698       -21.1895
  43   1.0000      -0.752375       -20.4732
  44   1.0000      -0.743145       -20.2220
  45   1.0000      -0.714023       -19.4296
  46   1.0000      -0.711905       -19.3719
  47   1.0000      -0.696448       -18.9513
  48   1.0000      -0.675969       -18.3941
  49   1.0000      -0.635069       -17.2811
  50   1.0000      -0.633361       -17.2346
  51   1.0000      -0.604557       -16.4508
  52   1.0000      -0.591927       -16.1072
  53   1.0000      -0.589717       -16.0470
  54   1.0000      -0.588559       -16.0155
  55   1.0000      -0.561266       -15.2728
  56   1.0000      -0.546927       -14.8827
  57   1.0000      -0.519744       -14.1430
  58   1.0000      -0.510803       -13.8997
  59   1.0000      -0.502657       -13.6780
  60   1.0000      -0.500256       -13.6127
  61   1.0000      -0.493758       -13.4358
  62   1.0000      -0.482773       -13.1369
  63   1.0000      -0.480060       -13.0631
  64   1.0000      -0.471775       -12.8377
  65   1.0000      -0.464708       -12.6453
  66   1.0000      -0.450636       -12.2624
  67   1.0000      -0.447845       -12.1865
  68   1.0000      -0.438323       -11.9274
  69   1.0000      -0.435337       -11.8461
  70   1.0000      -0.431246       -11.7348
  71   1.0000      -0.423751       -11.5309
  72   1.0000      -0.416585       -11.3359
  73   1.0000      -0.413485       -11.2515
  74   1.0000      -0.408290       -11.1101
  75   1.0000      -0.404407       -11.0045
  76   1.0000      -0.397854       -10.8262
  77   1.0000      -0.394501       -10.7349
  78   1.0000      -0.385643       -10.4939
  79   1.0000      -0.378154       -10.2901
  80   1.0000      -0.373997       -10.1770
  81   1.0000      -0.366214        -9.9652
  82   1.0000      -0.362836        -9.8733
  83   1.0000      -0.359301        -9.7771
  84   1.0000      -0.356742        -9.7074
  85   1.0000      -0.352774        -9.5995
  86   1.0000      -0.349119        -9.5000
  87   1.0000      -0.347053        -9.4438
  88   1.0000      -0.343004        -9.3336
  89   1.0000      -0.334892        -9.1129
  90   1.0000      -0.324747        -8.8368
  91   1.0000      -0.323249        -8.7961
  92   1.0000      -0.320416        -8.7190
  93   1.0000      -0.313341        -8.5264
  94   1.0000      -0.308487        -8.3943
  95   1.0000      -0.299367        -8.1462
  96   1.0000      -0.293506        -7.9867
  97   1.0000      -0.284544        -7.7428
  98   1.0000      -0.253484        -6.8977
  99   1.0000      -0.247974        -6.7477
 100   1.0000      -0.238224        -6.4824
 101   1.0000      -0.236783        -6.4432
 102   1.0000      -0.201127        -5.4729
 103   1.0000      -0.194854        -5.3023
 104   1.0000      -0.188790        -5.1372
 105   0.0000      -0.047565        -1.2943
 106   0.0000      -0.045555        -1.2396
 107   0.0000       0.012868         0.3502
 108   0.0000       0.014636         0.3983
 109   0.0000       0.017139         0.4664

                 SPIN DOWN ORBITALS
  NO   OCC          E(Eh)            E(eV)
   0   1.0000    -303.038235     -8246.0896
   1   1.0000     -36.433934      -991.4177
   2   1.0000     -31.295474      -851.5931
   3   1.0000     -31.292153      -851.5028
   4   1.0000     -31.291111      -851.4744
   5   1.0000     -19.097928      -519.6811
   6   1.0000     -19.095515      -519.6154
   7   1.0000     -14.365161      -390.8959
   8   1.0000     -14.333796      -390.0424
   9   1.0000     -14.333630      -390.0379
  10   1.0000     -10.229415      -278.3565
  11   1.0000     -10.229102      -278.3480
  12   1.0000     -10.228110      -278.3210
  13   1.0000     -10.226505      -278.2773
  14   1.0000     -10.223837      -278.2047
  15   1.0000     -10.223734      -278.2020
  16   1.0000     -10.209351      -277.8106
  17   1.0000     -10.208455      -277.7862
  18   1.0000     -10.197020      -277.4750
  19   1.0000     -10.194622      -277.4098
  20   1.0000     -10.178382      -276.9679
  21   1.0000     -10.176817      -276.9253
  22   1.0000     -10.176055      -276.9045
  23   1.0000     -10.174283      -276.8563
  24   1.0000     -10.173464      -276.8340
  25   1.0000     -10.171763      -276.7877
  26   1.0000     -10.162154      -276.5263
  27   1.0000     -10.160325      -276.4765
  28   1.0000     -10.158769      -276.4341
  29   1.0000     -10.156857      -276.3821
  30   1.0000      -4.092999      -111.3762
  31   1.0000      -2.595404       -70.6245
  32   1.0000      -2.588538       -70.4377
  33   1.0000      -2.588121       -70.4264
  34   1.0000      -0.991007       -26.9667
  35   1.0000      -0.988007       -26.8850
  36   1.0000      -0.948653       -25.8141
  37   1.0000      -0.932661       -25.3790
  38   1.0000      -0.927552       -25.2400
  39   1.0000      -0.831748       -22.6330
  40   1.0000      -0.830023       -22.5861
  41   1.0000      -0.803127       -21.8542
  42   1.0000      -0.778355       -21.1801
  43   1.0000      -0.752116       -20.4661
  44   1.0000      -0.742686       -20.2095
  45   1.0000      -0.713539       -19.4164
  46   1.0000      -0.711327       -19.3562
  47   1.0000      -0.695997       -18.9390
  48   1.0000      -0.675106       -18.3706
  49   1.0000      -0.634378       -17.2623
  50   1.0000      -0.632518       -17.2117
  51   1.0000      -0.603418       -16.4198
  52   1.0000      -0.591405       -16.0930
  53   1.0000      -0.589387       -16.0380
  54   1.0000      -0.588177       -16.0051
  55   1.0000      -0.558723       -15.2036
  56   1.0000      -0.545449       -14.8424
  57   1.0000      -0.516888       -14.0652
  58   1.0000      -0.509618       -13.8674
  59   1.0000      -0.501645       -13.6505
  60   1.0000      -0.496569       -13.5123
  61   1.0000      -0.492258       -13.3950
  62   1.0000      -0.481455       -13.1010
  63   1.0000      -0.477586       -12.9958
  64   1.0000      -0.470626       -12.8064
  65   1.0000      -0.462753       -12.5922
  66   1.0000      -0.448593       -12.2068
  67   1.0000      -0.443823       -12.0770
  68   1.0000      -0.434786       -11.8311
  69   1.0000      -0.433994       -11.8096
  70   1.0000      -0.427251       -11.6261
  71   1.0000      -0.422956       -11.5092
  72   1.0000      -0.413416       -11.2496
  73   1.0000      -0.410372       -11.1668
  74   1.0000      -0.406274       -11.0553
  75   1.0000      -0.400689       -10.9033
  76   1.0000      -0.395980       -10.7752
  77   1.0000      -0.392455       -10.6793
  78   1.0000      -0.384813       -10.4713
  79   1.0000      -0.374704       -10.1962
  80   1.0000      -0.365266        -9.9394
  81   1.0000      -0.362961        -9.8767
  82   1.0000      -0.356666        -9.7054
  83   1.0000      -0.351525        -9.5655
  84   1.0000      -0.348391        -9.4802
  85   1.0000      -0.344973        -9.3872
  86   1.0000      -0.343673        -9.3518
  87   1.0000      -0.335770        -9.1368
  88   1.0000      -0.329862        -8.9760
  89   1.0000      -0.322721        -8.7817
  90   1.0000      -0.315889        -8.5958
  91   1.0000      -0.314650        -8.5621
  92   1.0000      -0.303565        -8.2604
  93   1.0000      -0.298107        -8.1119
  94   1.0000      -0.276621        -7.5272
  95   1.0000      -0.271919        -7.3993
  96   1.0000      -0.265168        -7.2156
  97   1.0000      -0.246004        -6.6941
  98   1.0000      -0.238655        -6.4941
  99   1.0000      -0.236485        -6.4351
 100   1.0000      -0.233198        -6.3456
 101   1.0000      -0.197947        -5.3864
 102   1.0000      -0.184858        -5.0302
 103   0.0000      -0.047931        -1.3043
 104   0.0000      -0.046033        -1.2526
 105   0.0000      -0.044698        -1.2163
 106   0.0000      -0.008740        -0.2378
 107   0.0000       0.013441         0.3657

MULLIKEN ATOMIC CHARGES AND SPIN POPULATIONS
--------------------------------------------
   0 C :    0.104556    0.003025
   1 C :   -0.200686    0.009216
   2 C :   -0.084832   -0.003946
   3 C :   -0.149467    0.004080
   4 C :   -0.175877   -0.004592
   5 C :   -0.052414   -0.012821
   6 C :   -0.065703   -0.006062
   7 C :   -0.231521    0.001442
   8 C :   -0.023587   -0.004658
   9 C :   -0.213841    0.000589
  10 C :    0.228692   -0.005213
  11 C :   -0.207230    0.008153
  12 C :   -0.082921   -0.003177
  13 C :   -0.152196    0.002157
  14 C :   -0.173215   -0.003787
  15 C :   -0.062101   -0.013537
  16 C :    0.092088    0.004129
  17 C :    0.258348   -0.005816
  18 H :    0.098602   -0.000468
  19 H :    0.101428    0.000633
  20 H :    0.097999   -0.000186
  21 H :    0.093696    0.000465
  22 H :    0.079724    0.011440
  23 H :    0.142491    0.000518
  24 H :    0.084227    0.005852
  25 H :    0.133764    0.000762
  26 H :    0.082896    0.005633
  27 H :    0.098024   -0.000456
  28 H :    0.101113    0.000649
  29 H :    0.096880   -0.000079
  30 H :    0.091586    0.000469
  31 H :    0.079632    0.011564
  32 Ni:    0.382984    1.652128
  33 N :   -0.044396    0.070620
  34 N :   -0.071178    0.069558
  35 N :   -0.229537    0.086013
  36 O :   -0.549673    0.058204
  37 O :   -0.547830    0.054198
  38 C :   -0.085694   -0.004473
  39 C :   -0.147556   -0.001585
  40 H :    0.108059   -0.000090
  41 H :    0.103010    0.000126
  42 H :    0.138407    0.001668
  43 H :    0.096565    0.004989
  44 H :    0.104887    0.004757
  45 H :    0.145644    0.000897
  46 H :    0.106059    0.000017
  47 H :    0.105314   -0.000304
  48 H :    0.194779   -0.002700
Sum of atomic charges         :   -0.0000000

LOEWDIN ATOMIC CHARGES AND SPIN POPULATIONS
-------------------------------------------
   0 C :   -0.139573    0.002047
   1 C :   -0.132700    0.005154
   2 C :   -0.138044   -0.001979
   3 C :   -0.181245    0.002309
   4 C :   -0.113278   -0.002113
   5 C :   -0.156270   -0.001640
   6 C :   -0.271154    0.002669
   7 C :   -0.256887    0.000318
   8 C :   -0.262414    0.002824
   9 C :   -0.246353    0.000274
  10 C :   -0.274737    0.003659
  11 C :   -0.132812    0.004560
  12 C :   -0.138967   -0.001776
  13 C :   -0.182663    0.001058
  14 C :   -0.114316   -0.001914
  15 C :   -0.152289   -0.001696
  16 C :   -0.139614    0.003059
  17 C :   -0.275283    0.002989
  18 H :    0.142100   -0.000045
  19 H :    0.142589    0.000171
  20 H :    0.138891    0.000016
  21 H :    0.143467    0.000194
  22 H :    0.137524    0.004754
  23 H :    0.144686    0.000305
  24 H :    0.125099    0.002608
  25 H :    0.141772    0.000418
  26 H :    0.120828    0.002449
  27 H :    0.141632   -0.000041
  28 H :    0.142423    0.000192
  29 H :    0.138671    0.000016
  30 H :    0.143155    0.000193
  31 H :    0.138011    0.004822
  32 Ni:    0.077905    1.660904
  33 N :    0.161388    0.053482
  34 N :    0.160984    0.054153
  35 N :    0.089314    0.071293
  36 O :    0.068015    0.056647
  37 O :    0.067049    0.053708
  38 C :   -0.272638    0.002778
  39 C :   -0.280503    0.003446
  40 H :    0.146117   -0.000076
  41 H :    0.135714   -0.000002
  42 H :    0.147977    0.000844
  43 H :    0.126151    0.002855
  44 H :    0.123339    0.002841
  45 H :    0.145522    0.000536
  46 H :    0.140359   -0.000027
  47 H :    0.140129   -0.000132
  48 H :    0.190929    0.000899

  Mayer bond orders larger than 0.100000
B(  0-C , 10-C ) :   1.1901 B(  0-C , 14-C ) :   1.2378 B(  0-C , 15-C ) :   1.1483
B(  1-C ,  2-C ) :   1.4830 B(  1-C , 17-C ) :   1.3224 B(  1-C , 18-H ) :   0.9764
B(  2-C ,  3-C ) :   1.3002 B(  2-C , 19-H ) :   0.9711 B(  3-C ,  4-C ) :   1.4992
B(  3-C , 20-H ) :   0.9814 B(  4-C , 16-C ) :   1.2356 B(  4-C , 21-H ) :   0.9643
B(  5-C , 16-C ) :   1.1543 B(  5-C , 22-H ) :   0.9238 B(  5-C , 34-N ) :   1.7383
B(  6-C ,  7-C ) :   0.9497 B(  6-C , 23-H ) :   0.9505 B(  6-C , 24-H ) :   0.9510
B(  6-C , 33-N ) :   0.8910 B(  7-C , 38-C ) :   0.9835 B(  7-C , 40-H ) :   0.9615
B(  7-C , 41-H ) :   0.9687 B(  8-C ,  9-C ) :   0.9545 B(  8-C , 25-H ) :   0.9566
B(  8-C , 26-H ) :   0.9561 B(  8-C , 34-N ) :   0.8918 B(  9-C , 39-C ) :   0.9589
B(  9-C , 46-H ) :   0.9591 B(  9-C , 47-H ) :   0.9653 B( 10-C , 11-C ) :   1.3159
B( 10-C , 36-O ) :   1.3908 B( 11-C , 12-C ) :   1.4808 B( 11-C , 27-H ) :   0.9765
B( 12-C , 13-C ) :   1.2996 B( 12-C , 28-H ) :   0.9706 B( 13-C , 14-C ) :   1.5024
B( 13-C , 29-H ) :   0.9819 B( 14-C , 30-H ) :   0.9672 B( 15-C , 31-H ) :   0.9205
B( 15-C , 33-N ) :   1.7335 B( 16-C , 17-C ) :   1.1860 B( 17-C , 37-O ) :   1.3377
B( 32-Ni, 33-N ) :   0.5005 B( 32-Ni, 34-N ) :   0.4988 B( 32-Ni, 35-N ) :   0.4383
B( 32-Ni, 36-O ) :   0.4622 B( 32-Ni, 37-O ) :   0.4966 B( 35-N , 38-C ) :   0.9149
B( 35-N , 39-C ) :   0.9160 B( 35-N , 48-H ) :   0.9137 B( 38-C , 42-H ) :   0.9543
B( 38-C , 43-H ) :   0.9529 B( 39-C , 44-H ) :   0.9556 B( 39-C , 45-H ) :   0.9723

Dispersion correction           -0.119803007
FINAL SINGLE POINT ENERGY     -2611.666310332220

DIPOLE MOMENT
-------------
                                X             Y             Z
Electronic contribution:      1.10875      10.43521      -4.64611
Nuclear contribution   :     -1.23341     -12.34252       5.35435
                        -----------------------------------------
Total Dipole Moment    :     -0.12466      -1.90731       0.70824
                        -----------------------------------------
Magnitude (a.u.)       :      2.03837
Magnitude (Debye)      :      5.18113

Rotational constants in cm-1:     0.010856     0.004434     0.004256
Rotational constants in MHz :   325.465580   132.931894   127.593381

                             ****ORCA TERMINATED NORMALLY****
TOTAL RUN TIME: 0 days 19 hours 16 minutes 22 seconds 153 msec
